CRYSTAL
PRIMVEC
 5.07670103398263 0.00000000000000 0.00000000000000
 -0.00000000000000 5.07670103398263 -0.00000000000000
 0.00000000000000 -0.00000000000000 5.07670103398263
PRIMCOORD
 12 1
 72    -0.00000001330289    -0.00000003665495    -0.00000007240695    -0.00000009841295    -0.00000020661919    -0.00000039196723
 72     0.00000022993413     2.53835059918874     2.53835016058507    -0.00000010361762     0.00000020793686     0.00000043263245
 72     2.53835076475737     0.00000003030625     2.53835053763751    -0.00000003015264    -0.00000021543225     0.00000023258723
 72     2.53835012096820     2.53835040737660     0.00000019263607     0.00000023766169     0.00000022467313    -0.00000029859785
  8     1.26917525779152     1.26917527719180     3.80752568361534    -0.00000021014441    -0.00000015572216     0.00000013527745
  8     1.26917522394361     3.80752571940848     3.80752605629463     0.00000003254842     0.00000016648981    -0.00000015087659
  8     1.26917525196340     3.80752584582981     1.26917522380975    -0.00000009472114     0.00000000291558     0.00000012176996
  8     1.26917527025626     1.26917526388841     1.26917527994618    -0.00000009398315    -0.00000008715410    -0.00000010478129
  8     3.80752588880845     1.26917521675674     1.26917532001427     0.00000005939999     0.00000009413459    -0.00000004057430
  8     3.80752570788406     3.80752571715185     1.26917524136189     0.00000009697040     0.00000001475118    -0.00000018088163
  8     3.80752580011818     3.80752585693896     3.80752569692505     0.00000000701331     0.00000001752344     0.00000021658272
  8     3.80752564599665     1.26917523976709     3.80752584267263     0.00000020413802    -0.00000006718461     0.00000002996368
